# Thermal properties / unit cell (natom)

unit:
  temperature:   K
  free_energy:   kJ/mol
  entropy:       J/K/mol
  heat_capacity: J/K/mol

natom: 7    
cutoff_frequency: 0.00000
num_modes: 11010048
num_integrated_modes: 10857424

zero_point_energy:      20.8777267

thermal_properties:
- temperature:         0.0000000
  free_energy:        20.8777267
  entropy:             0.0000000
  heat_capacity:       0.0000000
  energy:             20.8777267

- temperature:        10.0000000
  free_energy:        20.8740748
  entropy:             1.3001463
  heat_capacity:       3.3266748
  energy:             20.8870763

- temperature:        20.0000000
  free_energy:        20.8359513
  entropy:             7.1573684
  heat_capacity:      16.5143292
  energy:             20.9790987

- temperature:        30.0000000
  free_energy:        20.7169067
  entropy:            17.1805266
  heat_capacity:      34.3173081
  energy:             21.2323225

- temperature:        40.0000000
  free_energy:        20.4849308
  entropy:            29.4526338
  heat_capacity:      51.5194453
  energy:             21.6630362

- temperature:        50.0000000
  free_energy:        20.1249949
  entropy:            42.6032151
  heat_capacity:      66.4990225
  energy:             22.2551556

- temperature:        60.0000000
  free_energy:        19.6324958
  entropy:            55.8770854
  heat_capacity:      79.1228877
  energy:             22.9851210

- temperature:        70.0000000
  free_energy:        19.0083351
  entropy:            68.8928920
  heat_capacity:      89.7152447
  energy:             23.8308375

- temperature:        80.0000000
  free_energy:        18.2561006
  entropy:            81.4732824
  heat_capacity:      98.6665480
  energy:             24.7739632

- temperature:        90.0000000
  free_energy:        17.3805631
  entropy:            93.5472802
  heat_capacity:     106.3101287
  energy:             25.7998183

- temperature:       100.0000000
  free_energy:        16.3869032
  entropy:           105.0976565
  heat_capacity:     112.9024596
  energy:             26.8966688

- temperature:       110.0000000
  free_energy:        15.2803264
  entropy:           116.1334705
  heat_capacity:     118.6354368
  energy:             28.0550082

- temperature:       120.0000000
  free_energy:        14.0658786
  entropy:           126.6759999
  heat_capacity:     123.6536254
  energy:             29.2669986

- temperature:       130.0000000
  free_energy:        12.7483630
  entropy:           136.7516077
  heat_capacity:     128.0684398
  energy:             30.5260720

- temperature:       140.0000000
  free_energy:        11.3323099
  entropy:           146.3881584
  heat_capacity:     131.9681249
  energy:             31.8266521

- temperature:       150.0000000
  free_energy:         9.8219712
  entropy:           155.6132429
  heat_capacity:     135.4243654
  energy:             33.1639577

- temperature:       160.0000000
  free_energy:         8.2213282
  entropy:           164.4533259
  heat_capacity:     138.4965898
  energy:             34.5338604

- temperature:       170.0000000
  free_energy:         6.5341047
  entropy:           172.9333662
  heat_capacity:     141.2348082
  energy:             35.9327769

- temperature:       180.0000000
  free_energy:         4.7637831
  entropy:           181.0766804
  heat_capacity:     143.6815448
  energy:             37.3575856

- temperature:       190.0000000
  free_energy:         2.9136211
  entropy:           188.9049319
  heat_capacity:     145.8732135
  energy:             38.8055582

- temperature:       200.0000000
  free_energy:         0.9866676
  entropy:           196.4381845
  heat_capacity:     147.8411444
  energy:             40.2743045

- temperature:       210.0000000
  free_energy:        -1.0142212
  entropy:           203.6949860
  heat_capacity:     149.6123833
  energy:             41.7617258

- temperature:       220.0000000
  free_energy:        -3.0863678
  entropy:           210.6924670
  heat_capacity:     151.2103356
  energy:             43.2659749

- temperature:       230.0000000
  free_energy:        -5.2272590
  entropy:           217.4464430
  heat_capacity:     152.6552969
  energy:             44.7854229

- temperature:       240.0000000
  free_energy:        -7.4345338
  entropy:           223.9715155
  heat_capacity:     153.9648984
  energy:             46.3186299

- temperature:       250.0000000
  free_energy:        -9.7059714
  entropy:           230.2811695
  heat_capacity:     155.1544824
  energy:             47.8643210

- temperature:       260.0000000
  free_energy:       -12.0394808
  entropy:           236.3878655
  heat_capacity:     156.2374233
  energy:             49.4213643

- temperature:       270.0000000
  free_energy:       -14.4330907
  entropy:           242.3031250
  heat_capacity:     157.2253998
  energy:             50.9887531

- temperature:       280.0000000
  free_energy:       -16.8849408
  entropy:           248.0376096
  heat_capacity:     158.1286290
  energy:             52.5655899

- temperature:       290.0000000
  free_energy:       -19.3932733
  entropy:           253.6011945
  heat_capacity:     158.9560657
  energy:             54.1510731

- temperature:       300.0000000
  free_energy:       -21.9564256
  entropy:           259.0030350
  heat_capacity:     159.7155739
  energy:             55.7444849

- temperature:       310.0000000
  free_energy:       -24.5728232
  entropy:           264.2516276
  heat_capacity:     160.4140728
  energy:             57.3451813

- temperature:       320.0000000
  free_energy:       -27.2409737
  entropy:           269.3548659
  heat_capacity:     161.0576627
  energy:             58.9525834

- temperature:       330.0000000
  free_energy:       -29.9594606
  entropy:           274.3200913
  heat_capacity:     161.6517327
  energy:             60.5661696

- temperature:       340.0000000
  free_energy:       -32.7269383
  entropy:           279.1541390
  heat_capacity:     162.2010531
  energy:             62.1854690

- temperature:       350.0000000
  free_energy:       -35.5421274
  entropy:           283.8633800
  heat_capacity:     162.7098553
  energy:             63.8100556

- temperature:       360.0000000
  free_energy:       -38.4038097
  entropy:           288.4537593
  heat_capacity:     163.1818998
  energy:             65.4395436

- temperature:       370.0000000
  free_energy:       -41.3108249
  entropy:           292.9308303
  heat_capacity:     163.6205358
  energy:             67.0735823

- temperature:       380.0000000
  free_energy:       -44.2620660
  entropy:           297.2997867
  heat_capacity:     164.0287513
  energy:             68.7118529

- temperature:       390.0000000
  free_energy:       -47.2564765
  entropy:           301.5654907
  heat_capacity:     164.4092180
  energy:             70.3540649

- temperature:       400.0000000
  free_energy:       -50.2930469
  entropy:           305.7324992
  heat_capacity:     164.7643290
  energy:             71.9999528

- temperature:       410.0000000
  free_energy:       -53.3708118
  entropy:           309.8050875
  heat_capacity:     165.0962317
  energy:             73.6492741

- temperature:       420.0000000
  free_energy:       -56.4888473
  entropy:           313.7872710
  heat_capacity:     165.4068570
  energy:             75.3018065

- temperature:       430.0000000
  free_energy:       -59.6462684
  entropy:           317.6828246
  heat_capacity:     165.6979439
  energy:             76.9573462

- temperature:       440.0000000
  free_energy:       -62.8422269
  entropy:           321.4953009
  heat_capacity:     165.9710616
  energy:             78.6157055

- temperature:       450.0000000
  free_energy:       -66.0759087
  entropy:           325.2280465
  heat_capacity:     166.2276282
  energy:             80.2767122

- temperature:       460.0000000
  free_energy:       -69.3465326
  entropy:           328.8842170
  heat_capacity:     166.4689278
  energy:             81.9402072

- temperature:       470.0000000
  free_energy:       -72.6533477
  entropy:           332.4667905
  heat_capacity:     166.6961249
  energy:             83.6060438

- temperature:       480.0000000
  free_energy:       -75.9956325
  entropy:           335.9785807
  heat_capacity:     166.9102772
  energy:             85.2740863

- temperature:       490.0000000
  free_energy:       -79.3726923
  entropy:           339.4222477
  heat_capacity:     167.1123468
  energy:             86.9442091

- temperature:       500.0000000
  free_energy:       -82.7838587
  entropy:           342.8003092
  heat_capacity:     167.3032104
  energy:             88.6162958

- temperature:       510.0000000
  free_energy:       -86.2284878
  entropy:           346.1151497
  heat_capacity:     167.4836680
  energy:             90.2902386

- temperature:       520.0000000
  free_energy:       -89.7059585
  entropy:           349.3690298
  heat_capacity:     167.6544506
  energy:             91.9659370

- temperature:       530.0000000
  free_energy:       -93.2156723
  entropy:           352.5640942
  heat_capacity:     167.8162273
  energy:             93.6432976

- temperature:       540.0000000
  free_energy:       -96.7570512
  entropy:           355.7023791
  heat_capacity:     167.9696110
  energy:             95.3222335

- temperature:       550.0000000
  free_energy:      -100.3295371
  entropy:           358.7858197
  heat_capacity:     168.1151643
  energy:             97.0026637

- temperature:       560.0000000
  free_energy:      -103.9325909
  entropy:           361.8162560
  heat_capacity:     168.2534039
  energy:             98.6845124

- temperature:       570.0000000
  free_energy:      -107.5656914
  entropy:           364.7954393
  heat_capacity:     168.3848053
  energy:            100.3677090

- temperature:       580.0000000
  free_energy:      -111.2283344
  entropy:           367.7250373
  heat_capacity:     168.5098065
  energy:            102.0521872

- temperature:       590.0000000
  free_energy:      -114.9200321
  entropy:           370.6066395
  heat_capacity:     168.6288115
  energy:            103.7378852

- temperature:       600.0000000
  free_energy:      -118.6403123
  entropy:           373.4417616
  heat_capacity:     168.7421930
  energy:            105.4247447

- temperature:       610.0000000
  free_energy:      -122.3887173
  entropy:           376.2318503
  heat_capacity:     168.8502959
  energy:            107.1127114

- temperature:       620.0000000
  free_energy:      -126.1648038
  entropy:           378.9782869
  heat_capacity:     168.9534392
  energy:            108.8017341

- temperature:       630.0000000
  free_energy:      -129.9681419
  entropy:           381.6823914
  heat_capacity:     169.0519184
  energy:            110.4917647

- temperature:       640.0000000
  free_energy:      -133.7983147
  entropy:           384.3454259
  heat_capacity:     169.1460076
  energy:            112.1827578

- temperature:       650.0000000
  free_energy:      -137.6549176
  entropy:           386.9685978
  heat_capacity:     169.2359613
  energy:            113.8746710

- temperature:       660.0000000
  free_energy:      -141.5375577
  entropy:           389.5530632
  heat_capacity:     169.3220159
  energy:            115.5674641

- temperature:       670.0000000
  free_energy:      -145.4458535
  entropy:           392.0999292
  heat_capacity:     169.4043914
  energy:            117.2610991

- temperature:       680.0000000
  free_energy:      -149.3794344
  entropy:           394.6102570
  heat_capacity:     169.4832927
  energy:            118.9555403

- temperature:       690.0000000
  free_energy:      -153.3379402
  entropy:           397.0850641
  heat_capacity:     169.5589106
  energy:            120.6507540

- temperature:       700.0000000
  free_energy:      -157.3210206
  entropy:           399.5253268
  heat_capacity:     169.6314233
  energy:            122.3467082

- temperature:       710.0000000
  free_energy:      -161.3283348
  entropy:           401.9319823
  heat_capacity:     169.7009969
  energy:            124.0433727

- temperature:       720.0000000
  free_energy:      -165.3595512
  entropy:           404.3059306
  heat_capacity:     169.7677870
  energy:            125.7407188

- temperature:       730.0000000
  free_energy:      -169.4143472
  entropy:           406.6480368
  heat_capacity:     169.8319388
  energy:            127.4387196

- temperature:       740.0000000
  free_energy:      -173.4924086
  entropy:           408.9591322
  heat_capacity:     169.8935884
  energy:            129.1373493

- temperature:       750.0000000
  free_energy:      -177.5934292
  entropy:           411.2400169
  heat_capacity:     169.9528633
  energy:            130.8365835

- temperature:       760.0000000
  free_energy:      -181.7171108
  entropy:           413.4914603
  heat_capacity:     170.0098829
  energy:            132.5363990

- temperature:       770.0000000
  free_energy:      -185.8631627
  entropy:           415.7142035
  heat_capacity:     170.0647595
  energy:            134.2367740

- temperature:       780.0000000
  free_energy:      -190.0313016
  entropy:           417.9089603
  heat_capacity:     170.1175983
  energy:            135.9376874

- temperature:       790.0000000
  free_energy:      -194.2212509
  entropy:           420.0764183
  heat_capacity:     170.1684983
  energy:            137.6391195

- temperature:       800.0000000
  free_energy:      -198.4327412
  entropy:           422.2172405
  heat_capacity:     170.2175525
  energy:            139.3410512

- temperature:       810.0000000
  free_energy:      -202.6655091
  entropy:           424.3320664
  heat_capacity:     170.2648486
  energy:            141.0434647

- temperature:       820.0000000
  free_energy:      -206.9192979
  entropy:           426.4215128
  heat_capacity:     170.3104691
  energy:            142.7463426

- temperature:       830.0000000
  free_energy:      -211.1938567
  entropy:           428.4861753
  heat_capacity:     170.3544916
  energy:            144.4496687

- temperature:       840.0000000
  free_energy:      -215.4889407
  entropy:           430.5266287
  heat_capacity:     170.3969895
  energy:            146.1534274

- temperature:       850.0000000
  free_energy:      -219.8043105
  entropy:           432.5434284
  heat_capacity:     170.4380319
  energy:            147.8576037

- temperature:       860.0000000
  free_energy:      -224.1397322
  entropy:           434.5371112
  heat_capacity:     170.4776842
  energy:            149.5621834

- temperature:       870.0000000
  free_energy:      -228.4949774
  entropy:           436.5081957
  heat_capacity:     170.5160082
  energy:            151.2671529

- temperature:       880.0000000
  free_energy:      -232.8698225
  entropy:           438.4571838
  heat_capacity:     170.5530621
  energy:            152.9724993

- temperature:       890.0000000
  free_energy:      -237.2640490
  entropy:           440.3845608
  heat_capacity:     170.5889011
  energy:            154.6782101

- temperature:       900.0000000
  free_energy:      -241.6774432
  entropy:           442.2907963
  heat_capacity:     170.6235776
  energy:            156.3842735

- temperature:       910.0000000
  free_energy:      -246.1097960
  entropy:           444.1763450
  heat_capacity:     170.6571409
  energy:            158.0906780

- temperature:       920.0000000
  free_energy:      -250.5609026
  entropy:           446.0416471
  heat_capacity:     170.6896380
  energy:            159.7974127

- temperature:       930.0000000
  free_energy:      -255.0305629
  entropy:           447.8871292
  heat_capacity:     170.7211134
  energy:            161.5044673

- temperature:       940.0000000
  free_energy:      -259.5185805
  entropy:           449.7132045
  heat_capacity:     170.7516092
  energy:            163.2118317

- temperature:       950.0000000
  free_energy:      -264.0247636
  entropy:           451.5202736
  heat_capacity:     170.7811654
  energy:            164.9194964

- temperature:       960.0000000
  free_energy:      -268.5489239
  entropy:           453.3087250
  heat_capacity:     170.8098201
  energy:            166.6274520

- temperature:       970.0000000
  free_energy:      -273.0908773
  entropy:           455.0789352
  heat_capacity:     170.8376095
  energy:            168.3356899

- temperature:       980.0000000
  free_energy:      -277.6504431
  entropy:           456.8312699
  heat_capacity:     170.8645678
  energy:            170.0442015

- temperature:       990.0000000
  free_energy:      -282.2274443
  entropy:           458.5660837
  heat_capacity:     170.8907277
  energy:            171.7529786

- temperature:      1000.0000000
  free_energy:      -286.8217075
  entropy:           460.2837209
  heat_capacity:     170.9161203
  energy:            173.4620134

- temperature:      1010.0000000
  free_energy:      -291.4330626
  entropy:           461.9845159
  heat_capacity:     170.9407752
  energy:            175.1712985

- temperature:      1020.0000000
  free_energy:      -296.0613427
  entropy:           463.6687935
  heat_capacity:     170.9647206
  energy:            176.8808266

- temperature:      1030.0000000
  free_energy:      -300.7063844
  entropy:           465.3368690
  heat_capacity:     170.9879833
  energy:            178.5905907

- temperature:      1040.0000000
  free_energy:      -305.3680271
  entropy:           466.9890492
  heat_capacity:     171.0105889
  energy:            180.3005841

- temperature:      1050.0000000
  free_energy:      -310.0461134
  entropy:           468.6256321
  heat_capacity:     171.0325619
  energy:            182.0108003

- temperature:      1060.0000000
  free_energy:      -314.7404888
  entropy:           470.2469076
  heat_capacity:     171.0539255
  energy:            183.7212333

- temperature:      1070.0000000
  free_energy:      -319.4510015
  entropy:           471.8531574
  heat_capacity:     171.0747020
  energy:            185.4318769

- temperature:      1080.0000000
  free_energy:      -324.1775027
  entropy:           473.4446557
  heat_capacity:     171.0949126
  energy:            187.1427254

- temperature:      1090.0000000
  free_energy:      -328.9198463
  entropy:           475.0216694
  heat_capacity:     171.1145776
  energy:            188.8537733

- temperature:      1100.0000000
  free_energy:      -333.6778887
  entropy:           476.5844581
  heat_capacity:     171.1337165
  energy:            190.5650152

- temperature:      1110.0000000
  free_energy:      -338.4514889
  entropy:           478.1332747
  heat_capacity:     171.1523477
  energy:            192.2764460

- temperature:      1120.0000000
  free_energy:      -343.2405084
  entropy:           479.6683652
  heat_capacity:     171.1704889
  energy:            193.9880605

- temperature:      1130.0000000
  free_energy:      -348.0448113
  entropy:           481.1899694
  heat_capacity:     171.1881573
  energy:            195.6998542

- temperature:      1140.0000000
  free_energy:      -352.8642637
  entropy:           482.6983209
  heat_capacity:     171.2053689
  energy:            197.4118222

- temperature:      1150.0000000
  free_energy:      -357.6987343
  entropy:           484.1936472
  heat_capacity:     171.2221394
  energy:            199.1239601

- temperature:      1160.0000000
  free_energy:      -362.5480939
  entropy:           485.6761702
  heat_capacity:     171.2384836
  energy:            200.8362635

- temperature:      1170.0000000
  free_energy:      -367.4122157
  entropy:           487.1461060
  heat_capacity:     171.2544158
  energy:            202.5487284

- temperature:      1180.0000000
  free_energy:      -372.2909748
  entropy:           488.6036655
  heat_capacity:     171.2699498
  energy:            204.2613505

- temperature:      1190.0000000
  free_energy:      -377.1842484
  entropy:           490.0490542
  heat_capacity:     171.2850986
  energy:            205.9741261

- temperature:      1200.0000000
  free_energy:      -382.0919160
  entropy:           491.4824727
  heat_capacity:     171.2998748
  energy:            207.6870512

- temperature:      1210.0000000
  free_energy:      -387.0138587
  entropy:           492.9041165
  heat_capacity:     171.3142905
  energy:            209.4001224

- temperature:      1220.0000000
  free_energy:      -391.9499597
  entropy:           494.3141767
  heat_capacity:     171.3283574
  energy:            211.1133359

- temperature:      1230.0000000
  free_energy:      -396.9001042
  entropy:           495.7128395
  heat_capacity:     171.3420865
  energy:            212.8266884

- temperature:      1240.0000000
  free_energy:      -401.8641791
  entropy:           497.1002868
  heat_capacity:     171.3554885
  energy:            214.5401765

- temperature:      1250.0000000
  free_energy:      -406.8420731
  entropy:           498.4766962
  heat_capacity:     171.3685738
  energy:            216.2537971

- temperature:      1260.0000000
  free_energy:      -411.8336768
  entropy:           499.8422411
  heat_capacity:     171.3813521
  energy:            217.9675470

- temperature:      1270.0000000
  free_energy:      -416.8388823
  entropy:           501.1970909
  heat_capacity:     171.3938331
  energy:            219.6814232

- temperature:      1280.0000000
  free_energy:      -421.8575835
  entropy:           502.5414111
  heat_capacity:     171.4060257
  energy:            221.3954227

- temperature:      1290.0000000
  free_energy:      -426.8896760
  entropy:           503.8753633
  heat_capacity:     171.4179389
  energy:            223.1095427

- temperature:      1300.0000000
  free_energy:      -431.9350568
  entropy:           505.1991056
  heat_capacity:     171.4295811
  energy:            224.8237806

- temperature:      1310.0000000
  free_energy:      -436.9936246
  entropy:           506.5127924
  heat_capacity:     171.4409604
  energy:            226.5381335

- temperature:      1320.0000000
  free_energy:      -442.0652796
  entropy:           507.8165746
  heat_capacity:     171.4520846
  energy:            228.2525989

- temperature:      1330.0000000
  free_energy:      -447.1499235
  entropy:           509.1105999
  heat_capacity:     171.4629613
  energy:            229.9671744

- temperature:      1340.0000000
  free_energy:      -452.2474596
  entropy:           510.3950126
  heat_capacity:     171.4735977
  energy:            231.6818573

- temperature:      1350.0000000
  free_energy:      -457.3577922
  entropy:           511.6699539
  heat_capacity:     171.4840010
  energy:            233.3966455

- temperature:      1360.0000000
  free_energy:      -462.4808275
  entropy:           512.9355619
  heat_capacity:     171.4941777
  energy:            235.1115366

- temperature:      1370.0000000
  free_energy:      -467.6164728
  entropy:           514.1919716
  heat_capacity:     171.5041345
  energy:            236.8265284

- temperature:      1380.0000000
  free_energy:      -472.7646367
  entropy:           515.4393155
  heat_capacity:     171.5138777
  energy:            238.5416186

- temperature:      1390.0000000
  free_energy:      -477.9252293
  entropy:           516.6777227
  heat_capacity:     171.5234131
  energy:            240.2568052

- temperature:      1400.0000000
  free_energy:      -483.0981618
  entropy:           517.9073200
  heat_capacity:     171.5327468
  energy:            241.9720862

- temperature:      1410.0000000
  free_energy:      -488.2833468
  entropy:           519.1282314
  heat_capacity:     171.5418844
  energy:            243.6874595

- temperature:      1420.0000000
  free_energy:      -493.4806979
  entropy:           520.3405783
  heat_capacity:     171.5508312
  energy:            245.4029232

- temperature:      1430.0000000
  free_energy:      -498.6901302
  entropy:           521.5444795
  heat_capacity:     171.5595927
  energy:            247.1184755

- temperature:      1440.0000000
  free_energy:      -503.9115597
  entropy:           522.7400515
  heat_capacity:     171.5681737
  energy:            248.8341145

- temperature:      1450.0000000
  free_energy:      -509.1449038
  entropy:           523.9274084
  heat_capacity:     171.5765793
  energy:            250.5498384

- temperature:      1460.0000000
  free_energy:      -514.3900809
  entropy:           525.1066619
  heat_capacity:     171.5848142
  energy:            252.2656455

- temperature:      1470.0000000
  free_energy:      -519.6470104
  entropy:           526.2779215
  heat_capacity:     171.5928830
  energy:            253.9815341

- temperature:      1480.0000000
  free_energy:      -524.9156130
  entropy:           527.4412944
  heat_capacity:     171.6007900
  energy:            255.6975026

- temperature:      1490.0000000
  free_energy:      -530.1958104
  entropy:           528.5968857
  heat_capacity:     171.6085397
  energy:            257.4135494

- temperature:      1500.0000000
  free_energy:      -535.4875251
  entropy:           529.7447987
  heat_capacity:     171.6161361
  energy:            259.1296729

- temperature:      1510.0000000
  free_energy:      -540.7906811
  entropy:           530.8851342
  heat_capacity:     171.6235832
  energy:            260.8458716

- temperature:      1520.0000000
  free_energy:      -546.1052029
  entropy:           532.0179914
  heat_capacity:     171.6308849
  energy:            262.5621441

- temperature:      1530.0000000
  free_energy:      -551.4310163
  entropy:           533.1434674
  heat_capacity:     171.6380450
  energy:            264.2784888

- temperature:      1540.0000000
  free_energy:      -556.7680480
  entropy:           534.2616575
  heat_capacity:     171.6450670
  energy:            265.9949045

- temperature:      1550.0000000
  free_energy:      -562.1162255
  entropy:           535.3726550
  heat_capacity:     171.6519546
  energy:            267.7113897

- temperature:      1560.0000000
  free_energy:      -567.4754774
  entropy:           536.4765516
  heat_capacity:     171.6587112
  energy:            269.4279432

- temperature:      1570.0000000
  free_energy:      -572.8457331
  entropy:           537.5734374
  heat_capacity:     171.6653399
  energy:            271.1445635

- temperature:      1580.0000000
  free_energy:      -578.2269231
  entropy:           538.6634004
  heat_capacity:     171.6718440
  energy:            272.8612496

- temperature:      1590.0000000
  free_energy:      -583.6189784
  entropy:           539.7465273
  heat_capacity:     171.6782267
  energy:            274.5780000

- temperature:      1600.0000000
  free_energy:      -589.0218311
  entropy:           540.8229030
  heat_capacity:     171.6844909
  energy:            276.2948137

- temperature:      1610.0000000
  free_energy:      -594.4354142
  entropy:           541.8926110
  heat_capacity:     171.6906395
  energy:            278.0116894

- temperature:      1620.0000000
  free_energy:      -599.8596614
  entropy:           542.9557330
  heat_capacity:     171.6966754
  energy:            279.7286261

- temperature:      1630.0000000
  free_energy:      -605.2945072
  entropy:           544.0123495
  heat_capacity:     171.7026012
  energy:            281.4456226

- temperature:      1640.0000000
  free_energy:      -610.7398869
  entropy:           545.0625395
  heat_capacity:     171.7084197
  energy:            283.1626778

- temperature:      1650.0000000
  free_energy:      -616.1957368
  entropy:           546.1063803
  heat_capacity:     171.7141334
  energy:            284.8797906

- temperature:      1660.0000000
  free_energy:      -621.6619936
  entropy:           547.1439480
  heat_capacity:     171.7197448
  energy:            286.5969601

- temperature:      1670.0000000
  free_energy:      -627.1385951
  entropy:           548.1753175
  heat_capacity:     171.7252563
  energy:            288.3141852

- temperature:      1680.0000000
  free_energy:      -632.6254796
  entropy:           549.2005622
  heat_capacity:     171.7306703
  energy:            290.0314649

- temperature:      1690.0000000
  free_energy:      -638.1225862
  entropy:           550.2197541
  heat_capacity:     171.7359891
  energy:            291.7487983

- temperature:      1700.0000000
  free_energy:      -643.6298547
  entropy:           551.2329642
  heat_capacity:     171.7412148
  energy:            293.4661844

- temperature:      1710.0000000
  free_energy:      -649.1472257
  entropy:           552.2402620
  heat_capacity:     171.7463497
  energy:            295.1836223

- temperature:      1720.0000000
  free_energy:      -654.6746405
  entropy:           553.2417160
  heat_capacity:     171.7513958
  energy:            296.9011111

- temperature:      1730.0000000
  free_energy:      -660.2120408
  entropy:           554.2373935
  heat_capacity:     171.7563552
  energy:            298.6186499

- temperature:      1740.0000000
  free_energy:      -665.7593693
  entropy:           555.2273605
  heat_capacity:     171.7612298
  energy:            300.3362379

- temperature:      1750.0000000
  free_energy:      -671.3165692
  entropy:           556.2116820
  heat_capacity:     171.7660216
  energy:            302.0538742

- temperature:      1760.0000000
  free_energy:      -676.8835844
  entropy:           557.1904218
  heat_capacity:     171.7707323
  energy:            303.7715581

- temperature:      1770.0000000
  free_energy:      -682.4603592
  entropy:           558.1636429
  heat_capacity:     171.7753639
  energy:            305.4892886

- temperature:      1780.0000000
  free_energy:      -688.0468390
  entropy:           559.1314068
  heat_capacity:     171.7799181